<?xml version="1.0" encoding="UTF-8"?>

<!-- generated on 03/21/21 16:39:08 by Eclipse SUMO sumo Version 1.8.0
<configuration xmlns:xsi="http://www.w3.org/2001/XMLSchema-instance" xsi:noNamespaceSchemaLocation="http://sumo.dlr.de/xsd/sumoConfiguration.xsd">

    <input>
        <net-file value="data/cross.net.xml"/>
        <route-files value="data/cross.rou.xml"/>
        <additional-files value="data/cross.det.xml"/>
    </input>

    <output>
        <tripinfo-output value="tripinfo.xml"/>
    </output>

    <time>
        <begin value="0"/>
    </time>

    <processing>
        <time-to-teleport value="-1"/>
    </processing>

    <report>
        <verbose value="true"/>
        <no-step-log value="true"/>
    </report>

    <traci_server>
        <remote-port value="53869"/>
    </traci_server>

    <gui_only>
        <gui-settings-file value="data/cross.settings.xml"/>
        <quit-on-end value="true"/>
        <start value="true"/>
    </gui_only>

</configuration>
-->

<tripinfos xmlns:xsi="http://www.w3.org/2001/XMLSchema-instance" xsi:noNamespaceSchemaLocation="http://sumo.dlr.de/xsd/tripinfo_file.xsd">
    <tripinfo id="up_3" depart="0.00" departLane="53o_0" departPos="5.10" departSpeed="0.00" departDelay="0.00" arrival="90.00" arrivalLane="54i_0" arrivalPos="10.00" arrivalSpeed="12.21" duration="90.00" routeLength="1015.10" waitingTime="0.00" waitingCount="0" stopTime="0.00" timeLoss="14.09" rerouteNo="0" devices="tripinfo_up_3" vType="typeNS" speedFactor="1.08" vaporized=""/>
    <tripinfo id="down_2" depart="0.00" departLane="54o_0" departPos="5.10" departSpeed="0.00" departDelay="0.00" arrival="93.00" arrivalLane="53i_0" arrivalPos="10.00" arrivalSpeed="11.70" duration="93.00" routeLength="1015.10" waitingTime="0.00" waitingCount="0" stopTime="0.00" timeLoss="14.17" rerouteNo="0" devices="tripinfo_down_2" vType="typeNS" speedFactor="1.01" vaporized=""/>
    <tripinfo id="down_6" depart="6.00" departLane="54o_0" departPos="5.10" departSpeed="0.00" departDelay="5.00" arrival="97.00" arrivalLane="53i_0" arrivalPos="10.00" arrivalSpeed="12.02" duration="91.00" routeLength="1015.10" waitingTime="0.00" waitingCount="0" stopTime="0.00" timeLoss="13.37" rerouteNo="0" devices="tripinfo_down_6" vType="typeNS" speedFactor="1.05" vaporized=""/>
    <tripinfo id="up_7" depart="5.00" departLane="53o_0" departPos="5.10" departSpeed="0.00" departDelay="4.00" arrival="105.00" arrivalLane="54i_0" arrivalPos="10.00" arrivalSpeed="10.41" duration="100.00" routeLength="1015.10" waitingTime="0.00" waitingCount="0" stopTime="0.00" timeLoss="14.31" rerouteNo="0" devices="tripinfo_up_7" vType="typeNS" speedFactor="0.89" vaporized=""/>
    <tripinfo id="right_0" depart="0.00" departLane="51o_0" departPos="5.10" departSpeed="0.00" departDelay="0.00" arrival="113.00" arrivalLane="52i_0" arrivalPos="10.00" arrivalSpeed="11.39" duration="113.00" routeLength="1015.10" waitingTime="12.00" waitingCount="1" stopTime="0.00" timeLoss="36.13" rerouteNo="0" devices="tripinfo_right_0" vType="typeWE" speedFactor="1.06" vaporized=""/>
    <tripinfo id="left_1" depart="0.00" departLane="52o_0" departPos="5.10" departSpeed="0.00" departDelay="0.00" arrival="118.00" arrivalLane="51i_0" arrivalPos="10.00" arrivalSpeed="10.62" duration="118.00" routeLength="1015.10" waitingTime="12.00" waitingCount="1" stopTime="0.00" timeLoss="35.14" rerouteNo="0" devices="tripinfo_left_1" vType="typeWE" speedFactor="0.94" vaporized=""/>
    <tripinfo id="down_10" depart="11.00" departLane="54o_0" departPos="5.10" departSpeed="0.00" departDelay="9.00" arrival="124.00" arrivalLane="53i_0" arrivalPos="10.00" arrivalSpeed="12.24" duration="113.00" routeLength="1015.10" waitingTime="13.00" waitingCount="1" stopTime="0.00" timeLoss="36.87" rerouteNo="0" devices="tripinfo_down_10" vType="typeNS" speedFactor="1.09" vaporized=""/>
    <tripinfo id="up_11" depart="10.00" departLane="53o_0" departPos="5.10" departSpeed="0.00" departDelay="8.00" arrival="126.00" arrivalLane="54i_0" arrivalPos="10.00" arrivalSpeed="11.90" duration="116.00" routeLength="1015.10" waitingTime="12.00" waitingCount="1" stopTime="0.00" timeLoss="37.54" rerouteNo="0" devices="tripinfo_up_11" vType="typeNS" speedFactor="1.03" vaporized=""/>
    <tripinfo id="right_4" depart="5.00" departLane="51o_0" departPos="5.10" departSpeed="0.00" departDelay="4.00" arrival="138.00" arrivalLane="52i_0" arrivalPos="10.00" arrivalSpeed="11.53" duration="133.00" routeLength="1015.10" waitingTime="25.00" waitingCount="2" stopTime="0.00" timeLoss="54.89" rerouteNo="0" devices="tripinfo_right_4" vType="typeWE" speedFactor="1.03" vaporized=""/>
    <tripinfo id="right_8" depart="10.00" departLane="51o_0" departPos="5.10" departSpeed="0.00" departDelay="8.00" arrival="144.00" arrivalLane="52i_0" arrivalPos="10.00" arrivalSpeed="10.74" duration="134.00" routeLength="1015.10" waitingTime="22.00" waitingCount="2" stopTime="0.00" timeLoss="51.19" rerouteNo="0" devices="tripinfo_right_8" vType="typeWE" speedFactor="0.94" vaporized=""/>
    <tripinfo id="right_15" depart="15.00" departLane="51o_0" departPos="5.10" departSpeed="0.00" departDelay="11.00" arrival="146.00" arrivalLane="52i_0" arrivalPos="10.00" arrivalSpeed="10.65" duration="131.00" routeLength="1015.10" waitingTime="17.00" waitingCount="2" stopTime="0.00" timeLoss="48.11" rerouteNo="0" devices="tripinfo_right_15" vType="typeWE" speedFactor="0.93" vaporized=""/>
    <tripinfo id="left_5" depart="5.00" departLane="52o_0" departPos="5.10" departSpeed="0.00" departDelay="4.00" arrival="148.00" arrivalLane="51i_0" arrivalPos="10.00" arrivalSpeed="9.37" duration="143.00" routeLength="1015.10" waitingTime="25.00" waitingCount="2" stopTime="0.00" timeLoss="54.18" rerouteNo="0" devices="tripinfo_left_5" vType="typeWE" speedFactor="0.83" vaporized=""/>
    <tripinfo id="left_9" depart="10.00" departLane="52o_0" departPos="5.10" departSpeed="0.00" departDelay="8.00" arrival="150.00" arrivalLane="51i_0" arrivalPos="10.00" arrivalSpeed="10.01" duration="140.00" routeLength="1015.10" waitingTime="21.00" waitingCount="2" stopTime="0.00" timeLoss="52.65" rerouteNo="0" devices="tripinfo_left_9" vType="typeWE" speedFactor="0.86" vaporized=""/>
    <tripinfo id="left_12" depart="15.00" departLane="52o_0" departPos="5.10" departSpeed="0.00" departDelay="12.00" arrival="152.00" arrivalLane="51i_0" arrivalPos="10.00" arrivalSpeed="10.66" duration="137.00" routeLength="1015.10" waitingTime="16.00" waitingCount="1" stopTime="0.00" timeLoss="59.07" rerouteNo="0" devices="tripinfo_left_12" vType="typeWE" speedFactor="1.05" vaporized=""/>
    <tripinfo id="down_13" depart="16.00" departLane="54o_0" departPos="5.10" departSpeed="0.00" departDelay="13.00" arrival="154.00" arrivalLane="53i_0" arrivalPos="10.00" arrivalSpeed="12.97" duration="138.00" routeLength="1015.10" waitingTime="33.00" waitingCount="2" stopTime="0.00" timeLoss="63.32" rerouteNo="0" devices="tripinfo_down_13" vType="typeNS" speedFactor="1.12" vaporized=""/>
    <tripinfo id="up_14" depart="15.00" departLane="53o_0" departPos="5.10" departSpeed="0.00" departDelay="12.00" arrival="158.00" arrivalLane="54i_0" arrivalPos="10.00" arrivalSpeed="11.40" duration="143.00" routeLength="1015.10" waitingTime="31.00" waitingCount="2" stopTime="0.00" timeLoss="62.61" rerouteNo="0" devices="tripinfo_up_14" vType="typeNS" speedFactor="0.99" vaporized=""/>
    <tripinfo id="down_17" depart="21.00" departLane="54o_0" departPos="5.10" departSpeed="0.00" departDelay="17.00" arrival="162.00" arrivalLane="53i_0" arrivalPos="10.00" arrivalSpeed="10.74" duration="141.00" routeLength="1015.10" waitingTime="29.00" waitingCount="2" stopTime="0.00" timeLoss="58.87" rerouteNo="0" devices="tripinfo_down_17" vType="typeNS" speedFactor="0.94" vaporized=""/>
    <tripinfo id="up_18" depart="21.00" departLane="53o_0" departPos="5.10" departSpeed="0.00" departDelay="17.00" arrival="162.00" arrivalLane="54i_0" arrivalPos="10.00" arrivalSpeed="10.50" duration="141.00" routeLength="1015.10" waitingTime="27.00" waitingCount="2" stopTime="0.00" timeLoss="58.45" rerouteNo="0" devices="tripinfo_up_18" vType="typeNS" speedFactor="0.94" vaporized=""/>
    <tripinfo id="right_19" depart="20.00" departLane="51o_0" departPos="5.10" departSpeed="0.00" departDelay="15.00" arrival="164.00" arrivalLane="52i_0" arrivalPos="10.00" arrivalSpeed="12.54" duration="144.00" routeLength="1015.10" waitingTime="31.00" waitingCount="2" stopTime="0.00" timeLoss="70.81" rerouteNo="0" devices="tripinfo_right_19" vType="typeWE" speedFactor="1.16" vaporized=""/>
    <tripinfo id="left_16" depart="20.00" departLane="52o_0" departPos="5.10" departSpeed="0.00" departDelay="16.00" arrival="175.00" arrivalLane="51i_0" arrivalPos="10.00" arrivalSpeed="10.27" duration="155.00" routeLength="1015.10" waitingTime="30.00" waitingCount="2" stopTime="0.00" timeLoss="68.93" rerouteNo="0" devices="tripinfo_left_16" vType="typeWE" speedFactor="0.88" vaporized=""/>
    <tripinfo id="left_20" depart="26.00" departLane="52o_0" departPos="5.10" departSpeed="0.00" departDelay="21.00" arrival="177.00" arrivalLane="51i_0" arrivalPos="10.00" arrivalSpeed="10.88" duration="151.00" routeLength="1015.10" waitingTime="30.00" waitingCount="2" stopTime="0.00" timeLoss="71.76" rerouteNo="0" devices="tripinfo_left_20" vType="typeWE" speedFactor="1.02" vaporized=""/>
    <tripinfo id="right_23" depart="25.00" departLane="51o_0" departPos="5.10" departSpeed="0.00" departDelay="19.00" arrival="177.00" arrivalLane="52i_0" arrivalPos="10.00" arrivalSpeed="10.61" duration="152.00" routeLength="1015.10" waitingTime="31.00" waitingCount="2" stopTime="0.00" timeLoss="66.61" rerouteNo="0" devices="tripinfo_right_23" vType="typeWE" speedFactor="0.89" vaporized=""/>
    <tripinfo id="right_27" depart="30.00" departLane="51o_0" departPos="5.10" departSpeed="0.00" departDelay="23.00" arrival="179.00" arrivalLane="52i_0" arrivalPos="10.00" arrivalSpeed="11.18" duration="149.00" routeLength="1015.10" waitingTime="29.00" waitingCount="2" stopTime="0.00" timeLoss="66.57" rerouteNo="0" devices="tripinfo_right_27" vType="typeWE" speedFactor="0.95" vaporized=""/>
    <tripinfo id="left_24" depart="31.00" departLane="52o_0" departPos="5.10" departSpeed="0.00" departDelay="25.00" arrival="182.00" arrivalLane="51i_0" arrivalPos="10.00" arrivalSpeed="9.62" duration="151.00" routeLength="1015.10" waitingTime="27.00" waitingCount="2" stopTime="0.00" timeLoss="62.01" rerouteNo="0" devices="tripinfo_left_24" vType="typeWE" speedFactor="0.83" vaporized=""/>
    <tripinfo id="left_28" depart="36.00" departLane="52o_0" departPos="5.10" departSpeed="0.00" departDelay="29.00" arrival="184.00" arrivalLane="51i_0" arrivalPos="10.00" arrivalSpeed="9.96" duration="148.00" routeLength="1015.10" waitingTime="22.00" waitingCount="3" stopTime="0.00" timeLoss="73.55" rerouteNo="0" devices="tripinfo_left_28" vType="typeWE" speedFactor="1.13" vaporized=""/>
    <tripinfo id="down_21" depart="26.00" departLane="54o_0" departPos="5.10" departSpeed="0.00" departDelay="21.00" arrival="187.00" arrivalLane="53i_0" arrivalPos="10.00" arrivalSpeed="11.71" duration="161.00" routeLength="1015.10" waitingTime="43.00" waitingCount="3" stopTime="0.00" timeLoss="81.96" rerouteNo="0" devices="tripinfo_down_21" vType="typeNS" speedFactor="1.01" vaporized=""/>
    <tripinfo id="up_22" depart="26.00" departLane="53o_0" departPos="5.10" departSpeed="0.00" departDelay="21.00" arrival="189.00" arrivalLane="54i_0" arrivalPos="10.00" arrivalSpeed="11.18" duration="163.00" routeLength="1015.10" waitingTime="43.00" waitingCount="3" stopTime="0.00" timeLoss="81.97" rerouteNo="0" devices="tripinfo_up_22" vType="typeNS" speedFactor="0.98" vaporized=""/>
    <tripinfo id="up_26" depart="31.00" departLane="53o_0" departPos="5.10" departSpeed="0.00" departDelay="25.00" arrival="193.00" arrivalLane="54i_0" arrivalPos="10.00" arrivalSpeed="10.49" duration="162.00" routeLength="1015.10" waitingTime="40.00" waitingCount="2" stopTime="0.00" timeLoss="78.49" rerouteNo="0" devices="tripinfo_up_26" vType="typeNS" speedFactor="0.92" vaporized=""/>
    <tripinfo id="right_31" depart="35.00" departLane="51o_0" departPos="5.10" departSpeed="0.00" departDelay="27.00" arrival="195.00" arrivalLane="52i_0" arrivalPos="10.00" arrivalSpeed="13.19" duration="160.00" routeLength="1015.10" waitingTime="43.00" waitingCount="4" stopTime="0.00" timeLoss="86.34" rerouteNo="0" devices="tripinfo_right_31" vType="typeWE" speedFactor="1.15" vaporized=""/>
    <tripinfo id="left_35" depart="41.00" departLane="52o_0" departPos="5.10" departSpeed="0.00" departDelay="32.00" arrival="199.00" arrivalLane="51i_0" arrivalPos="10.00" arrivalSpeed="12.00" duration="158.00" routeLength="1015.10" waitingTime="32.00" waitingCount="3" stopTime="0.00" timeLoss="78.86" rerouteNo="0" devices="tripinfo_left_35" vType="typeWE" speedFactor="1.02" vaporized=""/>
    <tripinfo id="left_38" depart="46.00" departLane="52o_0" departPos="5.10" departSpeed="0.00" departDelay="36.00" arrival="200.00" arrivalLane="51i_0" arrivalPos="10.00" arrivalSpeed="11.86" duration="154.00" routeLength="1015.10" waitingTime="27.00" waitingCount="3" stopTime="0.00" timeLoss="78.80" rerouteNo="0" devices="tripinfo_left_38" vType="typeWE" speedFactor="1.10" vaporized=""/>
    <tripinfo id="right_34" depart="41.00" departLane="51o_0" departPos="5.10" departSpeed="0.00" departDelay="32.00" arrival="202.00" arrivalLane="52i_0" arrivalPos="10.00" arrivalSpeed="11.47" duration="161.00" routeLength="1015.10" waitingTime="37.00" waitingCount="3" stopTime="0.00" timeLoss="81.24" rerouteNo="0" devices="tripinfo_right_34" vType="typeWE" speedFactor="0.99" vaporized=""/>
    <tripinfo id="right_40" depart="46.00" departLane="51o_0" departPos="5.10" departSpeed="0.00" departDelay="35.00" arrival="204.00" arrivalLane="52i_0" arrivalPos="10.00" arrivalSpeed="11.83" duration="158.00" routeLength="1015.10" waitingTime="34.00" waitingCount="3" stopTime="0.00" timeLoss="79.50" rerouteNo="0" devices="tripinfo_right_40" vType="typeWE" speedFactor="1.03" vaporized=""/>
    <tripinfo id="right_43" depart="51.00" departLane="51o_0" departPos="5.10" departSpeed="0.00" departDelay="39.00" arrival="205.00" arrivalLane="52i_0" arrivalPos="10.00" arrivalSpeed="11.42" duration="154.00" routeLength="1015.10" waitingTime="30.00" waitingCount="2" stopTime="0.00" timeLoss="76.23" rerouteNo="0" devices="tripinfo_right_43" vType="typeWE" speedFactor="1.04" vaporized=""/>
    <tripinfo id="left_41" depart="52.00" departLane="52o_0" departPos="5.10" departSpeed="0.00" departDelay="41.00" arrival="206.00" arrivalLane="51i_0" arrivalPos="10.00" arrivalSpeed="11.03" duration="154.00" routeLength="1015.10" waitingTime="25.00" waitingCount="2" stopTime="0.00" timeLoss="72.14" rerouteNo="0" devices="tripinfo_left_41" vType="typeWE" speedFactor="0.96" vaporized=""/>
    <tripinfo id="up_30" depart="36.00" departLane="53o_0" departPos="5.10" departSpeed="0.00" departDelay="29.00" arrival="212.00" arrivalLane="54i_0" arrivalPos="10.00" arrivalSpeed="13.24" duration="176.00" routeLength="1015.10" waitingTime="58.00" waitingCount="3" stopTime="0.00" timeLoss="103.19" rerouteNo="0" devices="tripinfo_up_30" vType="typeNS" speedFactor="1.18" vaporized=""/>
    <tripinfo id="down_25" depart="31.00" departLane="54o_0" departPos="5.10" departSpeed="0.00" departDelay="25.00" arrival="223.00" arrivalLane="53i_0" arrivalPos="10.00" arrivalSpeed="10.20" duration="192.00" routeLength="1015.10" waitingTime="62.00" waitingCount="3" stopTime="0.00" timeLoss="105.81" rerouteNo="0" devices="tripinfo_down_25" vType="typeNS" speedFactor="0.87" vaporized=""/>
    <tripinfo id="left_44" depart="57.00" departLane="52o_0" departPos="5.10" departSpeed="0.00" departDelay="45.00" arrival="228.00" arrivalLane="51i_0" arrivalPos="10.00" arrivalSpeed="12.06" duration="171.00" routeLength="1015.10" waitingTime="40.00" waitingCount="4" stopTime="0.00" timeLoss="93.55" rerouteNo="0" devices="tripinfo_left_44" vType="typeWE" speedFactor="1.04" vaporized=""/>
    <tripinfo id="right_47" depart="56.00" departLane="51o_0" departPos="5.10" departSpeed="0.00" departDelay="43.00" arrival="233.00" arrivalLane="52i_0" arrivalPos="10.00" arrivalSpeed="10.55" duration="177.00" routeLength="1015.10" waitingTime="43.00" waitingCount="3" stopTime="0.00" timeLoss="92.49" rerouteNo="0" devices="tripinfo_right_47" vType="typeWE" speedFactor="0.90" vaporized=""/>
    <tripinfo id="right_51" depart="61.00" departLane="51o_0" departPos="5.10" departSpeed="0.00" departDelay="47.00" arrival="235.00" arrivalLane="52i_0" arrivalPos="10.00" arrivalSpeed="11.17" duration="174.00" routeLength="1015.10" waitingTime="42.00" waitingCount="3" stopTime="0.00" timeLoss="100.64" rerouteNo="0" devices="tripinfo_right_51" vType="typeWE" speedFactor="1.17" vaporized=""/>
    <tripinfo id="right_58" depart="66.00" departLane="51o_0" departPos="5.10" departSpeed="0.00" departDelay="50.00" arrival="236.00" arrivalLane="52i_0" arrivalPos="10.00" arrivalSpeed="11.20" duration="170.00" routeLength="1015.10" waitingTime="40.00" waitingCount="3" stopTime="0.00" timeLoss="91.64" rerouteNo="0" devices="tripinfo_right_58" vType="typeWE" speedFactor="1.02" vaporized=""/>
    <tripinfo id="left_48" depart="62.00" departLane="52o_0" departPos="5.10" departSpeed="0.00" departDelay="49.00" arrival="238.00" arrivalLane="51i_0" arrivalPos="10.00" arrivalSpeed="10.24" duration="176.00" routeLength="1015.10" waitingTime="40.00" waitingCount="3" stopTime="0.00" timeLoss="89.89" rerouteNo="0" devices="tripinfo_left_48" vType="typeWE" speedFactor="0.88" vaporized=""/>
    <tripinfo id="left_52" depart="67.00" departLane="52o_0" departPos="5.10" departSpeed="0.00" departDelay="53.00" arrival="240.00" arrivalLane="51i_0" arrivalPos="10.00" arrivalSpeed="10.74" duration="173.00" routeLength="1015.10" waitingTime="39.00" waitingCount="3" stopTime="0.00" timeLoss="93.82" rerouteNo="0" devices="tripinfo_left_52" vType="typeWE" speedFactor="1.02" vaporized=""/>
    <tripinfo id="up_33" depart="41.00" departLane="53o_0" departPos="5.10" departSpeed="0.00" departDelay="33.00" arrival="242.00" arrivalLane="54i_0" arrivalPos="10.00" arrivalSpeed="13.24" duration="201.00" routeLength="1015.10" waitingTime="80.00" waitingCount="4" stopTime="0.00" timeLoss="127.40" rerouteNo="0" devices="tripinfo_up_33" vType="typeNS" speedFactor="1.17" vaporized=""/>
    <tripinfo id="up_37" depart="47.00" departLane="53o_0" departPos="5.10" departSpeed="0.00" departDelay="38.00" arrival="243.00" arrivalLane="54i_0" arrivalPos="10.00" arrivalSpeed="13.81" duration="196.00" routeLength="1015.10" waitingTime="76.00" waitingCount="4" stopTime="0.00" timeLoss="123.24" rerouteNo="0" devices="tripinfo_up_37" vType="typeNS" speedFactor="1.18" vaporized=""/>
    <tripinfo id="down_29" depart="37.00" departLane="54o_0" departPos="5.10" departSpeed="0.00" departDelay="30.00" arrival="250.00" arrivalLane="53i_0" arrivalPos="10.00" arrivalSpeed="10.62" duration="213.00" routeLength="1015.10" waitingTime="84.00" waitingCount="4" stopTime="0.00" timeLoss="130.38" rerouteNo="0" devices="tripinfo_down_29" vType="typeNS" speedFactor="0.93" vaporized=""/>
    <tripinfo id="down_32" depart="42.00" departLane="54o_0" departPos="5.10" departSpeed="0.00" departDelay="34.00" arrival="252.00" arrivalLane="53i_0" arrivalPos="10.00" arrivalSpeed="11.05" duration="210.00" routeLength="1015.10" waitingTime="81.00" waitingCount="4" stopTime="0.00" timeLoss="130.66" rerouteNo="0" devices="tripinfo_down_32" vType="typeNS" speedFactor="1.01" vaporized=""/>
    <tripinfo id="down_36" depart="47.00" departLane="54o_0" departPos="5.10" departSpeed="0.00" departDelay="38.00" arrival="254.00" arrivalLane="53i_0" arrivalPos="10.00" arrivalSpeed="11.31" duration="207.00" routeLength="1015.10" waitingTime="77.00" waitingCount="4" stopTime="0.00" timeLoss="125.96" rerouteNo="0" devices="tripinfo_down_36" vType="typeNS" speedFactor="0.97" vaporized=""/>
    <tripinfo id="up_39" depart="52.00" departLane="53o_0" departPos="5.10" departSpeed="0.00" departDelay="42.00" arrival="256.00" arrivalLane="54i_0" arrivalPos="10.00" arrivalSpeed="10.67" duration="204.00" routeLength="1015.10" waitingTime="68.00" waitingCount="4" stopTime="0.00" timeLoss="119.07" rerouteNo="0" devices="tripinfo_up_39" vType="typeNS" speedFactor="0.90" vaporized=""/>
    <tripinfo id="left_55" depart="72.00" departLane="52o_0" departPos="5.10" departSpeed="0.00" departDelay="57.00" arrival="266.00" arrivalLane="51i_0" arrivalPos="10.00" arrivalSpeed="11.39" duration="194.00" routeLength="1015.10" waitingTime="58.00" waitingCount="4" stopTime="0.00" timeLoss="114.03" rerouteNo="0" devices="tripinfo_left_55" vType="typeWE" speedFactor="1.00" vaporized=""/>
    <tripinfo id="right_62" depart="71.00" departLane="51o_0" departPos="5.10" departSpeed="0.00" departDelay="54.00" arrival="266.00" arrivalLane="52i_0" arrivalPos="10.00" arrivalSpeed="11.41" duration="195.00" routeLength="1015.10" waitingTime="59.00" waitingCount="4" stopTime="0.00" timeLoss="115.71" rerouteNo="0" devices="tripinfo_right_62" vType="typeWE" speedFactor="1.02" vaporized=""/>
    <tripinfo id="down_42" depart="52.00" departLane="54o_0" departPos="5.10" departSpeed="0.00" departDelay="41.00" arrival="273.00" arrivalLane="53i_0" arrivalPos="10.00" arrivalSpeed="11.76" duration="221.00" routeLength="1015.10" waitingTime="85.00" waitingCount="5" stopTime="0.00" timeLoss="145.47" rerouteNo="0" devices="tripinfo_down_42" vType="typeNS" speedFactor="1.09" vaporized=""/>
    <tripinfo id="down_45" depart="57.00" departLane="54o_0" departPos="5.10" departSpeed="0.00" departDelay="45.00" arrival="276.00" arrivalLane="53i_0" arrivalPos="10.00" arrivalSpeed="12.50" duration="219.00" routeLength="1015.10" waitingTime="83.00" waitingCount="5" stopTime="0.00" timeLoss="142.71" rerouteNo="0" devices="tripinfo_down_45" vType="typeNS" speedFactor="1.09" vaporized=""/>
    <tripinfo id="up_46" depart="57.00" departLane="53o_0" departPos="5.10" departSpeed="0.00" departDelay="45.00" arrival="278.00" arrivalLane="54i_0" arrivalPos="10.00" arrivalSpeed="11.37" duration="221.00" routeLength="1015.10" waitingTime="80.00" waitingCount="7" stopTime="0.00" timeLoss="141.04" rerouteNo="0" devices="tripinfo_up_46" vType="typeNS" speedFactor="1.00" vaporized=""/>
    <tripinfo id="left_59" depart="77.00" departLane="52o_0" departPos="5.10" departSpeed="0.00" departDelay="61.00" arrival="290.00" arrivalLane="51i_0" arrivalPos="10.00" arrivalSpeed="11.04" duration="213.00" routeLength="1015.10" waitingTime="72.00" waitingCount="5" stopTime="0.00" timeLoss="132.22" rerouteNo="0" devices="tripinfo_left_59" vType="typeWE" speedFactor="0.97" vaporized=""/>
    <tripinfo id="left_63" depart="83.00" departLane="52o_0" departPos="5.10" departSpeed="0.00" departDelay="66.00" arrival="292.00" arrivalLane="51i_0" arrivalPos="10.00" arrivalSpeed="11.37" duration="209.00" routeLength="1015.10" waitingTime="64.00" waitingCount="5" stopTime="0.00" timeLoss="129.00" rerouteNo="0" devices="tripinfo_left_63" vType="typeWE" speedFactor="0.99" vaporized=""/>
    <tripinfo id="right_65" depart="76.00" departLane="51o_0" departPos="5.10" departSpeed="0.00" departDelay="58.00" arrival="295.00" arrivalLane="52i_0" arrivalPos="10.00" arrivalSpeed="10.19" duration="219.00" routeLength="1015.10" waitingTime="71.00" waitingCount="5" stopTime="0.00" timeLoss="133.05" rerouteNo="0" devices="tripinfo_right_65" vType="typeWE" speedFactor="0.88" vaporized=""/>
    <tripinfo id="right_68" depart="81.00" departLane="51o_0" departPos="5.10" departSpeed="0.00" departDelay="62.00" arrival="296.00" arrivalLane="52i_0" arrivalPos="10.00" arrivalSpeed="9.97" duration="215.00" routeLength="1015.10" waitingTime="66.00" waitingCount="6" stopTime="0.00" timeLoss="137.50" rerouteNo="0" devices="tripinfo_right_68" vType="typeWE" speedFactor="1.04" vaporized=""/>
    <tripinfo id="left_66" depart="88.00" departLane="52o_0" departPos="5.10" departSpeed="0.00" departDelay="70.00" arrival="298.00" arrivalLane="51i_0" arrivalPos="10.00" arrivalSpeed="10.37" duration="210.00" routeLength="1015.10" waitingTime="59.00" waitingCount="4" stopTime="0.00" timeLoss="125.95" rerouteNo="0" devices="tripinfo_left_66" vType="typeWE" speedFactor="0.91" vaporized=""/>
    <tripinfo id="right_72" depart="86.00" departLane="51o_0" departPos="5.10" departSpeed="0.00" departDelay="66.00" arrival="298.00" arrivalLane="52i_0" arrivalPos="10.00" arrivalSpeed="10.41" duration="212.00" routeLength="1015.10" waitingTime="63.00" waitingCount="5" stopTime="0.00" timeLoss="129.74" rerouteNo="0" devices="tripinfo_right_72" vType="typeWE" speedFactor="0.94" vaporized=""/>
    <tripinfo id="down_49" depart="63.00" departLane="54o_0" departPos="5.10" departSpeed="0.00" departDelay="50.00" arrival="314.00" arrivalLane="53i_0" arrivalPos="10.00" arrivalSpeed="9.87" duration="251.00" routeLength="1015.10" waitingTime="99.00" waitingCount="6" stopTime="0.00" timeLoss="163.16" rerouteNo="0" devices="tripinfo_down_49" vType="typeNS" speedFactor="0.85" vaporized=""/>
    <tripinfo id="up_50" depart="63.00" departLane="53o_0" departPos="5.10" departSpeed="0.00" departDelay="50.00" arrival="314.00" arrivalLane="54i_0" arrivalPos="10.00" arrivalSpeed="10.04" duration="251.00" routeLength="1015.10" waitingTime="101.00" waitingCount="6" stopTime="0.00" timeLoss="163.79" rerouteNo="0" devices="tripinfo_up_50" vType="typeNS" speedFactor="0.85" vaporized=""/>
    <tripinfo id="down_53" depart="68.00" departLane="54o_0" departPos="5.10" departSpeed="0.00" departDelay="54.00" arrival="315.00" arrivalLane="53i_0" arrivalPos="10.00" arrivalSpeed="9.97" duration="247.00" routeLength="1015.10" waitingTime="94.00" waitingCount="5" stopTime="0.00" timeLoss="171.71" rerouteNo="0" devices="tripinfo_down_53" vType="typeNS" speedFactor="1.10" vaporized=""/>
    <tripinfo id="up_54" depart="68.00" departLane="53o_0" departPos="5.10" departSpeed="0.00" departDelay="54.00" arrival="316.00" arrivalLane="54i_0" arrivalPos="10.00" arrivalSpeed="10.80" duration="248.00" routeLength="1015.10" waitingTime="92.00" waitingCount="5" stopTime="0.00" timeLoss="168.30" rerouteNo="0" devices="tripinfo_up_54" vType="typeNS" speedFactor="1.00" vaporized=""/>
    <tripinfo id="down_56" depart="73.00" departLane="54o_0" departPos="5.10" departSpeed="0.00" departDelay="58.00" arrival="317.00" arrivalLane="53i_0" arrivalPos="10.00" arrivalSpeed="10.39" duration="244.00" routeLength="1015.10" waitingTime="91.00" waitingCount="5" stopTime="0.00" timeLoss="159.64" rerouteNo="0" devices="tripinfo_down_56" vType="typeNS" speedFactor="0.90" vaporized=""/>
    <tripinfo id="up_57" depart="73.00" departLane="53o_0" departPos="5.10" departSpeed="0.00" departDelay="58.00" arrival="317.00" arrivalLane="54i_0" arrivalPos="10.00" arrivalSpeed="10.87" duration="244.00" routeLength="1015.10" waitingTime="90.00" waitingCount="6" stopTime="0.00" timeLoss="170.26" rerouteNo="0" devices="tripinfo_up_57" vType="typeNS" speedFactor="1.14" vaporized=""/>
    <tripinfo id="right_79" depart="91.00" departLane="51o_0" departPos="5.10" departSpeed="0.00" departDelay="69.00" arrival="322.00" arrivalLane="52i_0" arrivalPos="10.00" arrivalSpeed="12.27" duration="231.00" routeLength="1015.10" waitingTime="81.00" waitingCount="6" stopTime="0.00" timeLoss="155.17" rerouteNo="0" devices="tripinfo_right_79" vType="typeWE" speedFactor="1.09" vaporized=""/>
    <tripinfo id="left_69" depart="93.00" departLane="52o_0" departPos="5.10" departSpeed="0.00" departDelay="74.00" arrival="324.00" arrivalLane="51i_0" arrivalPos="10.00" arrivalSpeed="11.35" duration="231.00" routeLength="1015.10" waitingTime="83.00" waitingCount="6" stopTime="0.00" timeLoss="152.65" rerouteNo="0" devices="tripinfo_left_69" vType="typeWE" speedFactor="1.02" vaporized=""/>
    <tripinfo id="left_73" depart="98.00" departLane="52o_0" departPos="5.10" departSpeed="0.00" departDelay="78.00" arrival="326.00" arrivalLane="51i_0" arrivalPos="10.00" arrivalSpeed="12.00" duration="228.00" routeLength="1015.10" waitingTime="80.00" waitingCount="5" stopTime="0.00" timeLoss="150.91" rerouteNo="0" devices="tripinfo_left_73" vType="typeWE" speedFactor="1.06" vaporized=""/>
    <tripinfo id="down_60" depart="79.00" departLane="54o_0" departPos="5.10" departSpeed="0.00" departDelay="63.00" arrival="334.00" arrivalLane="53i_0" arrivalPos="10.00" arrivalSpeed="12.43" duration="255.00" routeLength="1015.10" waitingTime="104.00" waitingCount="6" stopTime="0.00" timeLoss="178.66" rerouteNo="0" devices="tripinfo_down_60" vType="typeNS" speedFactor="1.08" vaporized=""/>
    <tripinfo id="up_61" depart="78.00" departLane="53o_0" departPos="5.10" departSpeed="0.00" departDelay="62.00" arrival="334.00" arrivalLane="54i_0" arrivalPos="10.00" arrivalSpeed="12.88" duration="256.00" routeLength="1015.10" waitingTime="105.00" waitingCount="7" stopTime="0.00" timeLoss="180.80" rerouteNo="0" devices="tripinfo_up_61" vType="typeNS" speedFactor="1.12" vaporized=""/>
    <tripinfo id="up_64" depart="84.00" departLane="53o_0" departPos="5.10" departSpeed="0.00" departDelay="67.00" arrival="342.00" arrivalLane="54i_0" arrivalPos="10.00" arrivalSpeed="10.51" duration="258.00" routeLength="1015.10" waitingTime="103.00" waitingCount="6" stopTime="0.00" timeLoss="175.59" rerouteNo="0" devices="tripinfo_up_64" vType="typeNS" speedFactor="0.94" vaporized=""/>
    <tripinfo id="down_67" depart="84.00" departLane="54o_0" departPos="5.10" departSpeed="0.00" departDelay="66.00" arrival="344.00" arrivalLane="53i_0" arrivalPos="10.00" arrivalSpeed="10.42" duration="260.00" routeLength="1015.10" waitingTime="103.00" waitingCount="6" stopTime="0.00" timeLoss="175.72" rerouteNo="0" devices="tripinfo_down_67" vType="typeNS" speedFactor="0.91" vaporized=""/>