<?xml version="1.0" encoding="UTF-8"?>

<!-- generated on 03/21/21 16:39:08 by Eclipse SUMO sumo Version 1.8.0
<configuration xmlns:xsi="http://www.w3.org/2001/XMLSchema-instance" xsi:noNamespaceSchemaLocation="http://sumo.dlr.de/xsd/sumoConfiguration.xsd">

    <input>
        <net-file value="data/cross.net.xml"/>
        <route-files value="data/cross.rou.xml"/>
        <additional-files value="data/cross.det.xml"/>
    </input>

    <output>
        <tripinfo-output value="tripinfo.xml"/>
    </output>

    <time>
        <begin value="0"/>
    </time>

    <processing>
        <time-to-teleport value="-1"/>
    </processing>

    <report>
        <verbose value="true"/>
        <no-step-log value="true"/>
    </report>

    <traci_server>
        <remote-port value="53869"/>
    </traci_server>

    <gui_only>
        <gui-settings-file value="data/cross.settings.xml"/>
        <quit-on-end value="true"/>
        <start value="true"/>
    </gui_only>

</configuration>
-->

<detector xmlns:xsi="http://www.w3.org/2001/XMLSchema-instance" xsi:noNamespaceSchemaLocation="http://sumo.dlr.de/xsd/det_e1_file.xsd">
    <interval begin="0.00" end="30.00" id="3" nVehContrib="0" flow="0.00" occupancy="0.00" speed="-1.00" harmonicMeanSpeed="-1.00" length="-1.00" nVehEntered="0"/>
    <interval begin="30.00" end="60.00" id="3" nVehContrib="0" flow="0.00" occupancy="43.17" speed="-1.00" harmonicMeanSpeed="-1.00" length="-1.00" nVehEntered="1"/>
    <interval begin="60.00" end="90.00" id="3" nVehContrib="2" flow="240.00" occupancy="80.78" speed="0.29" harmonicMeanSpeed="0.28" length="5.00" nVehEntered="2"/>
    <interval begin="90.00" end="120.00" id="3" nVehContrib="3" flow="360.00" occupancy="75.79" speed="2.36" harmonicMeanSpeed="0.66" length="5.00" nVehEntered="3"/>
    <interval begin="120.00" end="150.00" id="3" nVehContrib="3" flow="360.00" occupancy="77.38" speed="2.05" harmonicMeanSpeed="0.65" length="5.00" nVehEntered="3"/>
    <interval begin="150.00" end="180.00" id="3" nVehContrib="4" flow="480.00" occupancy="69.18" speed="2.84" harmonicMeanSpeed="0.96" length="5.00" nVehEntered="4"/>
    <interval begin="180.00" end="210.00" id="3" nVehContrib="2" flow="240.00" occupancy="86.32" speed="3.35" harmonicMeanSpeed="3.23" length="5.00" nVehEntered="2"/>
    <interval begin="210.00" end="240.00" id="3" nVehContrib="2" flow="240.00" occupancy="79.09" speed="0.22" harmonicMeanSpeed="0.22" length="5.00" nVehEntered="2"/>
    <interval begin="240.00" end="270.00" id="3" nVehContrib="2" flow="240.00" occupancy="86.98" speed="3.12" harmonicMeanSpeed="2.92" length="5.00" nVehEntered="2"/>
    <interval begin="270.00" end="300.00" id="3" nVehContrib="1" flow="120.00" occupancy="90.44" speed="0.19" harmonicMeanSpeed="0.19" length="5.00" nVehEntered="1"/>
    <interval begin="300.00" end="330.00" id="3" nVehContrib="2" flow="240.00" occupancy="77.27" speed="0.21" harmonicMeanSpeed="0.21" length="5.00" nVehEntered="2"/>
    <interval begin="330.00" end="360.00" id="3" nVehContrib="2" flow="240.00" occupancy="87.46" speed="3.32" harmonicMeanSpeed="3.14" length="5.00" nVehEntered="2"/>
    <interval begin="360.00" end="390.00" id="3" nVehContrib="2" flow="240.00" occupancy="81.96" speed="1.40" harmonicMeanSpeed="0.36" length="5.00" nVehEntered="2"/>
    <interval begin="390.00" end="420.00" id="3" nVehContrib="3" flow="360.00" occupancy="77.29" speed="2.22" harmonicMeanSpeed="0.58" length="5.00" nVehEntered="3"/>
    <interval begin="420.00" end="450.00" id="3" nVehContrib="2" flow="240.00" occupancy="78.08" speed="0.25" harmonicMeanSpeed="0.25" length="5.00" nVehEntered="2"/>
    <interval begin="450.00" end="480.00" id="3" nVehContrib="2" flow="240.00" occupancy="87.95" speed="2.98" harmonicMeanSpeed="2.81" length="5.00" nVehEntered="2"/>
    <interval begin="480.00" end="510.00" id="3" nVehContrib="2" flow="240.00" occupancy="84.62" speed="1.47" harmonicMeanSpeed="0.36" length="5.00" nVehEntered="2"/>
    <interval begin="510.00" end="540.00" id="3" nVehContrib="3" flow="360.00" occupancy="76.30" speed="2.05" harmonicMeanSpeed="0.56" length="5.00" nVehEntered="3"/>
    <interval begin="540.00" end="570.00" id="3" nVehContrib="3" flow="360.00" occupancy="78.84" speed="2.08" harmonicMeanSpeed="0.64" length="5.00" nVehEntered="3"/>
    <interval begin="570.00" end="600.00" id="3" nVehContrib="1" flow="120.00" occupancy="90.85" speed="0.19" harmonicMeanSpeed="0.19" length="5.00" nVehEntered="1"/>
    <interval begin="600.00" end="630.00" id="3" nVehContrib="1" flow="120.00" occupancy="88.42" speed="0.19" harmonicMeanSpeed="0.19" length="5.00" nVehEntered="1"/>
    <interval begin="630.00" end="660.00" id="3" nVehContrib="1" flow="120.00" occupancy="4.86" speed="0.24" harmonicMeanSpeed="0.24" length="5.00" nVehEntered="0"/>
    <interval begin="660.00" end="690.00" id="3" nVehContrib="0" flow="0.00" occupancy="0.00" speed="-1.00" harmonicMeanSpeed="-1.00" length="-1.00" nVehEntered="0"/>
    <interval begin="690.00" end="720.00" id="3" nVehContrib="0" flow="0.00" occupancy="0.00" speed="-1.00" harmonicMeanSpeed="-1.00" length="-1.00" nVehEntered="0"/>
    <interval begin="720.00" end="726.00" id="3" nVehContrib="0" flow="0.00" occupancy="0.00" speed="-1.00" harmonicMeanSpeed="-1.00" length="-1.00" nVehEntered="0"/>
</detector>
